#
TITLE=""
VARIABLES="X", "Y", "Z", "Id"
ZONE T="SINGLE ZONE"
NODES=3126
ELEMENTS=734
DATAPACKING=BLOCK
ZONETYPE=FETRIANGLE
VARLOCATION=([4-4]=CELLCENTERED)
2.733999999999999885e-03 3.222000000000000038e-03 3.206000000000000082e-03 2.733999999999999885e-03 3.206000000000000082e-03 2.716999999999999797e-03 3.222000000000000038e-03 3.713999999999999854e-03 3.699000000000000031e-03 3.222000000000000038e-03 3.699000000000000031e-03 3.206000000000000082e-03 3.713999999999999854e-03 4.210000000000000200e-03 4.196000000000000077e-03 3.713999999999999854e-03 4.196000000000000077e-03 3.699000000000000031e-03 4.210000000000000200e-03 4.709999999999999777e-03 4.697999999999999919e-03 4.210000000000000200e-03 4.697999999999999919e-03 4.196000000000000077e-03 4.709999999999999777e-03 5.213999999999999885e-03 5.202000000000000027e-03 4.709999999999999777e-03 5.202000000000000027e-03 4.697999999999999919e-03 5.213999999999999885e-03 5.721000000000000391e-03 5.709999999999999798e-03 5.213999999999999885e-03 5.709999999999999798e-03 5.202000000000000027e-03 5.721000000000000391e-03 6.230000000000000294e-03 6.219999999999999835e-03 5.721000000000000391e-03 6.219999999999999835e-03 5.709999999999999798e-03 6.230000000000000294e-03 6.740999999999999596e-03 6.732000000000000137e-03 6.230000000000000294e-03 6.732000000000000137e-03 6.219999999999999835e-03 6.740999999999999596e-03 7.254000000000000031e-03 7.245999999999999837e-03 6.740999999999999596e-03 7.245999999999999837e-03 6.732000000000000137e-03 7.254000000000000031e-03 7.767999999999999731e-03 7.760000000000000404e-03 7.254000000000000031e-03 7.760000000000000404e-03 7.245999999999999837e-03 7.767999999999999731e-03 8.281000000000000166e-03 8.274000000000000105e-03 7.767999999999999731e-03 8.274000000000000105e-03 7.760000000000000404e-03 8.281000000000000166e-03 8.793999999999999734e-03 8.788000000000000672e-03 8.281000000000000166e-03 8.788000000000000672e-03 8.274000000000000105e-03 8.793999999999999734e-03 9.306000000000000036e-03 9.299999999999999239e-03 8.793999999999999734e-03 9.299999999999999239e-03 8.788000000000000672e-03 9.306000000000000036e-03 9.816999999999999338e-03 9.811999999999999542e-03 9.306000000000000036e-03 9.811999999999999542e-03 9.299999999999999239e-03 9.816999999999999338e-03 1.032500000000000084e-02 1.031999999999999931e-02 9.816999999999999338e-03 1.031999999999999931e-02 9.811999999999999542e-03 1.032500000000000084e-02 1.082999999999999935e-02 1.082600000000000055e-02 1.032500000000000084e-02 1.082600000000000055e-02 1.031999999999999931e-02 1.082999999999999935e-02 1.133100000000000079e-02 1.132700000000000026e-02 1.082999999999999935e-02 1.132700000000000026e-02 1.082600000000000055e-02 1.133100000000000079e-02 1.182700000000000071e-02 1.182399999999999944e-02 1.133100000000000079e-02 1.182399999999999944e-02 1.132700000000000026e-02 1.182700000000000071e-02 1.231699999999999982e-02 1.231499999999999956e-02 1.182700000000000071e-02 1.231499999999999956e-02 1.182399999999999944e-02 1.231699999999999982e-02 1.280099999999999988e-02 1.279899999999999961e-02 1.231699999999999982e-02 1.279899999999999961e-02 1.231499999999999956e-02 1.280099999999999988e-02 1.326699999999999928e-02 1.326500000000000075e-02 1.280099999999999988e-02 1.326500000000000075e-02 1.279899999999999961e-02 1.326699999999999928e-02 1.372400000000000009e-02 1.372199999999999982e-02 1.326699999999999928e-02 1.372199999999999982e-02 1.326500000000000075e-02 1.372400000000000009e-02 1.417200000000000057e-02 1.417000000000000030e-02 1.372400000000000009e-02 1.417000000000000030e-02 1.372199999999999982e-02 1.417200000000000057e-02 1.459500000000000033e-02 1.459399999999999933e-02 1.417200000000000057e-02 1.459399999999999933e-02 1.417000000000000030e-02 1.459500000000000033e-02 1.499299999999999938e-02 1.499200000000000012e-02 1.459500000000000033e-02 1.499200000000000012e-02 1.459399999999999933e-02 1.499299999999999938e-02 1.536999999999999998e-02 1.536900000000000072e-02 1.499299999999999938e-02 1.536900000000000072e-02 1.499200000000000012e-02 1.536999999999999998e-02 1.573400000000000146e-02 1.573300000000000046e-02 1.536999999999999998e-02 1.573300000000000046e-02 1.536900000000000072e-02 1.573400000000000146e-02 1.608700000000000060e-02 1.608700000000000060e-02 1.573400000000000146e-02 1.608700000000000060e-02 1.573300000000000046e-02 1.608700000000000060e-02 1.642300000000000010e-02 1.642199999999999910e-02 1.608700000000000060e-02 1.642199999999999910e-02 1.608700000000000060e-02 1.642300000000000010e-02 1.673399999999999888e-02 1.673300000000000134e-02 1.642300000000000010e-02 1.673300000000000134e-02 1.642199999999999910e-02 1.673399999999999888e-02 1.702100000000000141e-02 1.702100000000000141e-02 1.673399999999999888e-02 1.702100000000000141e-02 1.673300000000000134e-02 1.702100000000000141e-02 1.729400000000000034e-02 1.729299999999999934e-02 1.702100000000000141e-02 1.729299999999999934e-02 1.702100000000000141e-02 1.729400000000000034e-02 1.754599999999999910e-02 1.754500000000000157e-02 1.729400000000000034e-02 1.754500000000000157e-02 1.729299999999999934e-02 1.754599999999999910e-02 1.778100000000000167e-02 1.778100000000000167e-02 1.754599999999999910e-02 1.778100000000000167e-02 1.754500000000000157e-02 1.778100000000000167e-02 1.799699999999999911e-02 1.799699999999999911e-02 1.778100000000000167e-02 1.799699999999999911e-02 1.778100000000000167e-02 1.799699999999999911e-02 1.818900000000000031e-02 1.818900000000000031e-02 1.799699999999999911e-02 1.818900000000000031e-02 1.799699999999999911e-02 1.818900000000000031e-02 1.836199999999999985e-02 1.836199999999999985e-02 1.818900000000000031e-02 1.836199999999999985e-02 1.818900000000000031e-02 1.836199999999999985e-02 1.851600000000000121e-02 1.851600000000000121e-02 1.836199999999999985e-02 1.851600000000000121e-02 1.836199999999999985e-02 1.851600000000000121e-02 1.864899999999999891e-02 1.864899999999999891e-02 1.851600000000000121e-02 1.864899999999999891e-02 1.851600000000000121e-02 1.864899999999999891e-02 1.875999999999999890e-02 1.875999999999999890e-02 1.864899999999999891e-02 1.875999999999999890e-02 1.864899999999999891e-02 1.875999999999999890e-02 1.884800000000000017e-02 1.884800000000000017e-02 1.875999999999999890e-02 1.884800000000000017e-02 1.875999999999999890e-02 1.884800000000000017e-02 1.891500000000000126e-02 1.891500000000000126e-02 1.884800000000000017e-02 1.891500000000000126e-02 1.884800000000000017e-02 1.891500000000000126e-02 1.896099999999999869e-02 1.896099999999999869e-02 1.891500000000000126e-02 1.896099999999999869e-02 1.891500000000000126e-02 1.896099999999999869e-02 1.898800000000000140e-02 1.898800000000000140e-02 1.896099999999999869e-02 1.898800000000000140e-02 1.896099999999999869e-02 1.898800000000000140e-02 1.899299999999999947e-02 1.899299999999999947e-02 1.898800000000000140e-02 1.899299999999999947e-02 1.898800000000000140e-02 1.899299999999999947e-02 1.897700000000000081e-02 1.897700000000000081e-02 1.899299999999999947e-02 1.897700000000000081e-02 1.899299999999999947e-02 1.897700000000000081e-02 1.893999999999999850e-02 1.894099999999999950e-02 1.897700000000000081e-02 1.894099999999999950e-02 1.897700000000000081e-02 1.893999999999999850e-02 1.888099999999999848e-02 1.888099999999999848e-02 1.893999999999999850e-02 1.888099999999999848e-02 1.894099999999999950e-02 1.888099999999999848e-02 1.880000000000000074e-02 1.880099999999999827e-02 1.888099999999999848e-02 1.880099999999999827e-02 1.888099999999999848e-02 1.880000000000000074e-02 1.869900000000000034e-02 1.869900000000000034e-02 1.880000000000000074e-02 1.869900000000000034e-02 1.880099999999999827e-02 1.869900000000000034e-02 1.857699999999999976e-02 1.857699999999999976e-02 1.869900000000000034e-02 1.857699999999999976e-02 1.869900000000000034e-02 1.857699999999999976e-02 1.843699999999999853e-02 1.843699999999999853e-02 1.857699999999999976e-02 1.843699999999999853e-02 1.857699999999999976e-02 1.843699999999999853e-02 1.827799999999999911e-02 1.827799999999999911e-02 1.843699999999999853e-02 1.827799999999999911e-02 1.843699999999999853e-02 1.827799999999999911e-02 1.809499999999999997e-02 1.809499999999999997e-02 1.827799999999999911e-02 1.809499999999999997e-02 1.827799999999999911e-02 1.809499999999999997e-02 1.788999999999999965e-02 1.788999999999999965e-02 1.809499999999999997e-02 1.788999999999999965e-02 1.809499999999999997e-02 1.788999999999999965e-02 1.766300000000000162e-02 1.766399999999999915e-02 1.788999999999999965e-02 1.766399999999999915e-02 1.788999999999999965e-02 1.766300000000000162e-02 1.741799999999999946e-02 1.741799999999999946e-02 1.766300000000000162e-02 1.741799999999999946e-02 1.766399999999999915e-02 1.741799999999999946e-02 1.715399999999999911e-02 1.715399999999999911e-02 1.741799999999999946e-02 1.715399999999999911e-02 1.741799999999999946e-02 1.715399999999999911e-02 1.686500000000000152e-02 1.686599999999999905e-02 1.715399999999999911e-02 1.686599999999999905e-02 1.715399999999999911e-02 1.686500000000000152e-02 1.656099999999999933e-02 1.656200000000000033e-02 1.686500000000000152e-02 1.656200000000000033e-02 1.686599999999999905e-02 1.656099999999999933e-02 1.624199999999999949e-02 1.624300000000000049e-02 1.656099999999999933e-02 1.624300000000000049e-02 1.656200000000000033e-02 1.624199999999999949e-02 1.589899999999999994e-02 1.589899999999999994e-02 1.624199999999999949e-02 1.589899999999999994e-02 1.624300000000000049e-02 1.589899999999999994e-02 1.553799999999999973e-02 1.553900000000000073e-02 1.589899999999999994e-02 1.553900000000000073e-02 1.589899999999999994e-02 1.553799999999999973e-02 1.515299999999999980e-02 1.515400000000000080e-02 1.553799999999999973e-02 1.515400000000000080e-02 1.553900000000000073e-02 1.515299999999999980e-02 1.475199999999999949e-02 1.475399999999999975e-02 1.515299999999999980e-02 1.475399999999999975e-02 1.515400000000000080e-02 1.475199999999999949e-02 1.433800000000000005e-02 1.434000000000000032e-02 1.475199999999999949e-02 1.434000000000000032e-02 1.475399999999999975e-02 1.433800000000000005e-02 1.391399999999999929e-02 1.391599999999999955e-02 1.433800000000000005e-02 1.391599999999999955e-02 1.434000000000000032e-02 1.391399999999999929e-02 1.347399999999999987e-02 1.347600000000000013e-02 1.391399999999999929e-02 1.347600000000000013e-02 1.391599999999999955e-02 1.347399999999999987e-02 1.301899999999999932e-02 1.302099999999999959e-02 1.347399999999999987e-02 1.302099999999999959e-02 1.347600000000000013e-02 1.301899999999999932e-02 1.254300000000000033e-02 1.254599999999999986e-02 1.301899999999999932e-02 1.254599999999999986e-02 1.302099999999999959e-02 1.254300000000000033e-02 1.205299999999999948e-02 1.205600000000000074e-02 1.254300000000000033e-02 1.205600000000000074e-02 1.254599999999999986e-02 1.205299999999999948e-02 1.155800000000000056e-02 1.156100000000000010e-02 1.205299999999999948e-02 1.156100000000000010e-02 1.205600000000000074e-02 1.155800000000000056e-02 1.105800000000000012e-02 1.106099999999999965e-02 1.155800000000000056e-02 1.106099999999999965e-02 1.156100000000000010e-02 1.105800000000000012e-02 1.055299999999999988e-02 1.055700000000000041e-02 1.105800000000000012e-02 1.055700000000000041e-02 1.106099999999999965e-02 1.055299999999999988e-02 1.004500000000000011e-02 1.004900000000000064e-02 1.055299999999999988e-02 1.004900000000000064e-02 1.055700000000000041e-02 1.004500000000000011e-02 9.532999999999999807e-03 9.539000000000000604e-03 1.004500000000000011e-02 9.539000000000000604e-03 1.004900000000000064e-02 9.532999999999999807e-03 9.020000000000000240e-03 9.025999999999999301e-03 9.532999999999999807e-03 9.025999999999999301e-03 9.539000000000000604e-03 9.020000000000000240e-03 8.503999999999999407e-03 8.510999999999999469e-03 9.020000000000000240e-03 8.510999999999999469e-03 9.025999999999999301e-03 8.503999999999999407e-03 7.988000000000000309e-03 7.995000000000000370e-03 8.503999999999999407e-03 7.995000000000000370e-03 8.510999999999999469e-03 7.988000000000000309e-03 7.472000000000000343e-03 7.479999999999999670e-03 7.988000000000000309e-03 7.479999999999999670e-03 7.995000000000000370e-03 7.472000000000000343e-03 6.956999999999999643e-03 6.965999999999999970e-03 7.472000000000000343e-03 6.965999999999999970e-03 7.479999999999999670e-03 6.956999999999999643e-03 6.444000000000000075e-03 6.453999999999999668e-03 6.956999999999999643e-03 6.453999999999999668e-03 6.965999999999999970e-03 6.444000000000000075e-03 5.931999999999999773e-03 5.943000000000000366e-03 6.444000000000000075e-03 5.943000000000000366e-03 6.453999999999999668e-03 5.931999999999999773e-03 5.422999999999999869e-03 5.433999999999999594e-03 5.931999999999999773e-03 5.433999999999999594e-03 5.943000000000000366e-03 5.422999999999999869e-03 4.915000000000000098e-03 4.928000000000000089e-03 5.422999999999999869e-03 4.928000000000000089e-03 5.433999999999999594e-03 4.915000000000000098e-03 4.410999999999999990e-03 4.425000000000000114e-03 4.915000000000000098e-03 4.425000000000000114e-03 4.928000000000000089e-03 4.410999999999999990e-03 3.911000000000000414e-03 3.924000000000000404e-03 4.410999999999999990e-03 3.924000000000000404e-03 4.425000000000000114e-03 3.911000000000000414e-03 3.415000000000000067e-03 3.429999999999999889e-03 3.911000000000000414e-03 3.429999999999999889e-03 3.924000000000000404e-03 3.415000000000000067e-03 2.922999999999999817e-03 2.939000000000000206e-03 3.415000000000000067e-03 2.939000000000000206e-03 3.429999999999999889e-03 2.922999999999999817e-03 2.435999999999999797e-03 2.452999999999999885e-03 2.922999999999999817e-03 2.452999999999999885e-03 2.939000000000000206e-03 2.233999999999999875e-03 2.252000000000000095e-03 2.733999999999999885e-03 2.233999999999999875e-03 2.733999999999999885e-03 2.716999999999999797e-03 1.755999999999999965e-03 1.775000000000000102e-03 2.252000000000000095e-03 1.755999999999999965e-03 2.252000000000000095e-03 2.233999999999999875e-03 1.283000000000000069e-03 1.302999999999999905e-03 1.775000000000000102e-03 1.283000000000000069e-03 1.775000000000000102e-03 1.755999999999999965e-03 8.159999999999999936e-04 8.379999999999999862e-04 1.302999999999999905e-03 8.159999999999999936e-04 1.302999999999999905e-03 1.283000000000000069e-03 3.539999999999999853e-04 3.770000000000000022e-04 8.379999999999999862e-04 3.539999999999999853e-04 8.379999999999999862e-04 8.159999999999999936e-04 -1.010000000000000020e-04 -7.700000000000000139e-05 3.770000000000000022e-04 -1.010000000000000020e-04 3.770000000000000022e-04 3.539999999999999853e-04 -5.509999999999999490e-04 -5.249999999999999676e-04 -7.700000000000000139e-05 -5.509999999999999490e-04 -7.700000000000000139e-05 -1.010000000000000020e-04 -9.940000000000000918e-04 -9.659999999999999533e-04 -5.249999999999999676e-04 -9.940000000000000918e-04 -5.249999999999999676e-04 -5.509999999999999490e-04 -1.430000000000000064e-03 -1.400999999999999902e-03 -9.659999999999999533e-04 -1.430000000000000064e-03 -9.659999999999999533e-04 -9.940000000000000918e-04 -1.860000000000000108e-03 -1.828999999999999897e-03 -1.400999999999999902e-03 -1.860000000000000108e-03 -1.400999999999999902e-03 -1.430000000000000064e-03 -2.282999999999999873e-03 -2.250999999999999963e-03 -1.828999999999999897e-03 -2.282999999999999873e-03 -1.828999999999999897e-03 -1.860000000000000108e-03 -2.699000000000000010e-03 -2.665999999999999967e-03 -2.250999999999999963e-03 -2.699000000000000010e-03 -2.250999999999999963e-03 -2.282999999999999873e-03 -3.109999999999999917e-03 -3.075000000000000042e-03 -2.665999999999999967e-03 -3.109999999999999917e-03 -2.665999999999999967e-03 -2.699000000000000010e-03 -3.514999999999999895e-03 -3.478000000000000189e-03 -3.075000000000000042e-03 -3.514999999999999895e-03 -3.075000000000000042e-03 -3.109999999999999917e-03 -3.916000000000000210e-03 -3.877999999999999937e-03 -3.478000000000000189e-03 -3.916000000000000210e-03 -3.478000000000000189e-03 -3.514999999999999895e-03 -4.310999999999999728e-03 -4.271999999999999756e-03 -3.877999999999999937e-03 -4.310999999999999728e-03 -3.877999999999999937e-03 -3.916000000000000210e-03 -4.700000000000000185e-03 -4.658999999999999947e-03 -4.271999999999999756e-03 -4.700000000000000185e-03 -4.271999999999999756e-03 -4.310999999999999728e-03 -5.080999999999999579e-03 -5.039000000000000076e-03 -4.658999999999999947e-03 -5.080999999999999579e-03 -4.658999999999999947e-03 -4.700000000000000185e-03 -5.454999999999999780e-03 -5.409999999999999878e-03 -5.039000000000000076e-03 -5.454999999999999780e-03 -5.039000000000000076e-03 -5.080999999999999579e-03 -5.819999999999999653e-03 -5.774999999999999752e-03 -5.409999999999999878e-03 -5.819999999999999653e-03 -5.409999999999999878e-03 -5.454999999999999780e-03 -6.183000000000000128e-03 -6.139000000000000359e-03 -5.774999999999999752e-03 -6.183000000000000128e-03 -5.774999999999999752e-03 -5.819999999999999653e-03 -6.544000000000000337e-03 -6.497000000000000171e-03 -6.139000000000000359e-03 -6.544000000000000337e-03 -6.139000000000000359e-03 -6.183000000000000128e-03 -6.896000000000000220e-03 -6.846999999999999788e-03 -6.497000000000000171e-03 -6.896000000000000220e-03 -6.497000000000000171e-03 -6.544000000000000337e-03 -7.241000000000000041e-03 -7.191000000000000343e-03 -6.846999999999999788e-03 -7.241000000000000041e-03 -6.846999999999999788e-03 -6.896000000000000220e-03 -7.581000000000000065e-03 -7.527999999999999969e-03 -7.191000000000000343e-03 -7.581000000000000065e-03 -7.191000000000000343e-03 -7.241000000000000041e-03 -7.912999999999999895e-03 -7.860000000000000667e-03 -7.527999999999999969e-03 -7.912999999999999895e-03 -7.527999999999999969e-03 -7.581000000000000065e-03 -8.238999999999999796e-03 -8.182999999999999302e-03 -7.860000000000000667e-03 -8.238999999999999796e-03 -7.860000000000000667e-03 -7.912999999999999895e-03 -8.559000000000000635e-03 -8.503000000000000141e-03 -8.182999999999999302e-03 -8.559000000000000635e-03 -8.182999999999999302e-03 -8.238999999999999796e-03 -8.878000000000000475e-03 -8.821999999999999981e-03 -8.503000000000000141e-03 -8.878000000000000475e-03 -8.503000000000000141e-03 -8.559000000000000635e-03 -9.194000000000000783e-03 -9.138000000000000289e-03 -8.821999999999999981e-03 -9.194000000000000783e-03 -8.821999999999999981e-03 -8.878000000000000475e-03 -9.508000000000000826e-03 -9.450999999999999332e-03 -9.138000000000000289e-03 -9.508000000000000826e-03 -9.138000000000000289e-03 -9.194000000000000783e-03 -9.816999999999999338e-03 -9.759000000000000313e-03 -9.450999999999999332e-03 -9.816999999999999338e-03 -9.450999999999999332e-03 -9.508000000000000826e-03 -1.012099999999999979e-02 -1.006199999999999976e-02 -9.759000000000000313e-03 -1.012099999999999979e-02 -9.759000000000000313e-03 -9.816999999999999338e-03 -1.042099999999999971e-02 -1.036100000000000042e-02 -1.006199999999999976e-02 -1.042099999999999971e-02 -1.006199999999999976e-02 -1.012099999999999979e-02 -1.071700000000000083e-02 -1.065600000000000054e-02 -1.036100000000000042e-02 -1.071700000000000083e-02 -1.036100000000000042e-02 -1.042099999999999971e-02 -1.100800000000000042e-02 -1.094400000000000060e-02 -1.065600000000000054e-02 -1.100800000000000042e-02 -1.065600000000000054e-02 -1.071700000000000083e-02 -1.128900000000000042e-02 -1.122300000000000034e-02 -1.094400000000000060e-02 -1.128900000000000042e-02 -1.094400000000000060e-02 -1.100800000000000042e-02 -1.156300000000000036e-02 -1.149200000000000048e-02 -1.122300000000000034e-02 -1.156300000000000036e-02 -1.122300000000000034e-02 -1.128900000000000042e-02 -1.182500000000000044e-02 -1.175099999999999929e-02 -1.149200000000000048e-02 -1.182500000000000044e-02 -1.149200000000000048e-02 -1.156300000000000036e-02 -1.207699999999999919e-02 -1.199899999999999925e-02 -1.175099999999999929e-02 -1.207699999999999919e-02 -1.175099999999999929e-02 -1.182500000000000044e-02 -1.232100000000000035e-02 -1.224100000000000014e-02 -1.199899999999999925e-02 -1.232100000000000035e-02 -1.199899999999999925e-02 -1.207699999999999919e-02 -1.256400000000000051e-02 -1.248600000000000057e-02 -1.224100000000000014e-02 -1.256400000000000051e-02 -1.224100000000000014e-02 -1.232100000000000035e-02 -1.280899999999999921e-02 -1.273299999999999953e-02 -1.248600000000000057e-02 -1.280899999999999921e-02 -1.248600000000000057e-02 -1.256400000000000051e-02 -1.305800000000000016e-02 -1.298799999999999955e-02 -1.273299999999999953e-02 -1.305800000000000016e-02 -1.273299999999999953e-02 -1.280899999999999921e-02 -1.331799999999999998e-02 -1.325400000000000016e-02 -1.298799999999999955e-02 -1.331799999999999998e-02 -1.298799999999999955e-02 -1.305800000000000016e-02 -1.358600000000000085e-02 -1.352399999999999956e-02 -1.325400000000000016e-02 -1.358600000000000085e-02 -1.325400000000000016e-02 -1.331799999999999998e-02 -1.385600000000000026e-02 -1.379499999999999997e-02 -1.352399999999999956e-02 -1.385600000000000026e-02 -1.352399999999999956e-02 -1.358600000000000085e-02 -1.412099999999999987e-02 -1.405600000000000079e-02 -1.379499999999999997e-02 -1.412099999999999987e-02 -1.379499999999999997e-02 -1.385600000000000026e-02 -1.437500000000000062e-02 -1.430799999999999954e-02 -1.405600000000000079e-02 -1.437500000000000062e-02 -1.405600000000000079e-02 -1.412099999999999987e-02 -1.462300000000000058e-02 -1.455399999999999923e-02 -1.430799999999999954e-02 -1.462300000000000058e-02 -1.430799999999999954e-02 -1.437500000000000062e-02 -1.486099999999999921e-02 -1.478699999999999980e-02 -1.455399999999999923e-02 -1.486099999999999921e-02 -1.455399999999999923e-02 -1.462300000000000058e-02 -1.508199999999999992e-02 -1.499900000000000018e-02 -1.478699999999999980e-02 -1.508199999999999992e-02 -1.478699999999999980e-02 -1.486099999999999921e-02 -1.528599999999999924e-02 -1.519299999999999991e-02 -1.499900000000000018e-02 -1.528599999999999924e-02 -1.499900000000000018e-02 -1.508199999999999992e-02 -1.547100000000000038e-02 -1.536999999999999998e-02 -1.519299999999999991e-02 -1.547100000000000038e-02 -1.519299999999999991e-02 -1.528599999999999924e-02 -1.565000000000000072e-02 -1.555499999999999938e-02 -1.536999999999999998e-02 -1.565000000000000072e-02 -1.536999999999999998e-02 -1.547100000000000038e-02 -1.585299999999999904e-02 -1.577800000000000036e-02 -1.555499999999999938e-02 -1.585299999999999904e-02 -1.555499999999999938e-02 -1.565000000000000072e-02 -1.610500000000000126e-02 -1.605699999999999836e-02 -1.577800000000000036e-02 -1.610500000000000126e-02 -1.577800000000000036e-02 -1.585299999999999904e-02 -1.641099999999999851e-02 -1.638999999999999832e-02 -1.605699999999999836e-02 -1.641099999999999851e-02 -1.605699999999999836e-02 -1.610500000000000126e-02 -1.676300000000000012e-02 -1.676199999999999912e-02 -1.638999999999999832e-02 -1.676300000000000012e-02 -1.638999999999999832e-02 -1.641099999999999851e-02 -1.713599999999999846e-02 -1.713900000000000146e-02 -1.676199999999999912e-02 -1.713599999999999846e-02 -1.676199999999999912e-02 -1.676300000000000012e-02 -1.748500000000000054e-02 -1.748299999999999854e-02 -1.713900000000000146e-02 -1.748500000000000054e-02 -1.713900000000000146e-02 -1.713599999999999846e-02 -1.782399999999999957e-02 -1.781500000000000097e-02 -1.748299999999999854e-02 -1.782399999999999957e-02 -1.748299999999999854e-02 -1.748500000000000054e-02 -1.803499999999999895e-02 -1.793200000000000002e-02 -1.781500000000000097e-02 -1.803499999999999895e-02 -1.781500000000000097e-02 -1.782399999999999957e-02 -1.793310380704658466e-02 -1.793200000000000002e-02 -1.793792577039461655e-02 -1.793792577039461655e-02 -1.793200000000000002e-02 -1.795382005538739140e-02 -1.794700000000000115e-02 -1.793310380704658466e-02 -1.793792577039461655e-02 -1.794700000000000115e-02 -1.793792577039461655e-02 -1.795382005538739140e-02 -1.795382005538739140e-02 -1.808600000000000138e-02 -1.794700000000000115e-02 -1.795382005538739140e-02 -1.793200000000000002e-02 -1.803499999999999895e-02 -1.808600000000000138e-02 -1.795382005538739140e-02 -1.806870442964291987e-02 -1.806870442964291987e-02 -1.795382005538739140e-02 -1.803499999999999895e-02 -1.800699999999999870e-02 -1.775900000000000048e-02 -1.794700000000000115e-02 -1.800699999999999870e-02 -1.794700000000000115e-02 -1.808600000000000138e-02 -1.780999999999999944e-02 -1.753199999999999897e-02 -1.775900000000000048e-02 -1.780999999999999944e-02 -1.775900000000000048e-02 -1.800699999999999870e-02 -1.738498620203444284e-02 -1.739256539329339310e-02 -1.738200000000000162e-02 -1.753199999999999897e-02 -1.739256539329339310e-02 -1.738498620203444284e-02 -1.753199999999999897e-02 -1.761100000000000165e-02 -1.739256539329339310e-02 -1.761100000000000165e-02 -1.753199999999999897e-02 -1.780999999999999944e-02 -1.754599999999999910e-02 -1.738299999999999915e-02 -1.738200000000000162e-02 -1.739673969047390162e-02 -1.738200000000000162e-02 -1.739256539329339310e-02 -1.739673969047390162e-02 -1.754599999999999910e-02 -1.738200000000000162e-02 -1.739673969047390162e-02 -1.739256539329339310e-02 -1.761100000000000165e-02 -1.761100000000000165e-02 -1.754599999999999910e-02 -1.739673969047390162e-02 -1.738498620203444284e-02 -1.738299999999999915e-02 -1.739256539329339310e-02 -1.739673969047390162e-02 -1.739256539329339310e-02 -1.738299999999999915e-02 -1.739673969047390162e-02 -1.742000000000000146e-02 -1.739256539329339310e-02 -1.742000000000000146e-02 -1.738498620203444284e-02 -1.739256539329339310e-02 -1.742000000000000146e-02 -1.739673969047390162e-02 -1.756100000000000022e-02 -1.739673969047390162e-02 -1.738299999999999915e-02 -1.754599999999999910e-02 -1.756100000000000022e-02 -1.739673969047390162e-02 -1.754599999999999910e-02 -1.762299999999999978e-02 -1.753400000000000097e-02 -1.742000000000000146e-02 -1.762299999999999978e-02 -1.742000000000000146e-02 -1.756100000000000022e-02 -1.786599999999999994e-02 -1.792399999999999896e-02 -1.753400000000000097e-02 -1.786599999999999994e-02 -1.753400000000000097e-02 -1.762299999999999978e-02 -1.793310380704658466e-02 -1.792399999999999896e-02 -1.793792577039461655e-02 -1.793792577039461655e-02 -1.841399999999999981e-02 -1.793310380704658466e-02 -1.841399999999999981e-02 -1.793792577039461655e-02 -1.833399999999999960e-02 -1.793792577039461655e-02 -1.792399999999999896e-02 -1.795382005538739140e-02 -1.795382005538739140e-02 -1.833399999999999960e-02 -1.793792577039461655e-02 -1.795382005538739140e-02 -1.792399999999999896e-02 -1.786599999999999994e-02 -1.806870442964291987e-02 -1.795382005538739140e-02 -1.786599999999999994e-02 -1.833399999999999960e-02 -1.795382005538739140e-02 -1.806870442964291987e-02 -1.855751523742026760e-02 -1.841399999999999981e-02 -1.862034676622378523e-02 -1.878900000000000015e-02 -1.855751523742026760e-02 -1.862034676622378523e-02 -1.876200000000000090e-02 -1.878900000000000015e-02 -1.862034676622378523e-02 -1.862129354840254963e-02 -1.876200000000000090e-02 -1.862034676622378523e-02 -1.862129354840254963e-02 -1.862034676622378523e-02 -1.833399999999999960e-02 -1.876200000000000090e-02 -1.862129354840254963e-02 -1.869678808523876287e-02 -1.869678808523876287e-02 -1.862129354840254963e-02 -1.833399999999999960e-02 -1.862034676622378523e-02 -1.841399999999999981e-02 -1.833399999999999960e-02 -1.901399999999999965e-02 -1.895700000000000163e-02 -1.878900000000000015e-02 -1.901399999999999965e-02 -1.878900000000000015e-02 -1.876200000000000090e-02 -1.880799999999999833e-02 -1.833600000000000160e-02 -1.895700000000000163e-02 -1.880799999999999833e-02 -1.895700000000000163e-02 -1.901399999999999965e-02 -1.793000000000000149e-02 -1.789353269311064545e-02 -1.782241845563323906e-02 -1.763258318683681367e-02 -1.765662855496198322e-02 -1.759200000000000000e-02 -1.774909780510050550e-02 -1.765662855496198322e-02 -1.763258318683681367e-02 -1.782241845563323906e-02 -1.789353269311064545e-02 -1.765662855496198322e-02 -1.833600000000000160e-02 -1.765662855496198322e-02 -1.774909780510050550e-02 -1.833600000000000160e-02 -1.782241845563323906e-02 -1.765662855496198322e-02 -1.793000000000000149e-02 -1.782241845563323906e-02 -1.833600000000000160e-02 -1.793000000000000149e-02 -1.833600000000000160e-02 -1.880799999999999833e-02 -1.750200000000000020e-02 -1.738699999999999968e-02 -1.759200000000000000e-02 -1.793000000000000149e-02 -1.791840956060616538e-02 -1.789353269311064545e-02 -1.765662855496198322e-02 -1.771842578747752361e-02 -1.759200000000000000e-02 -1.791840956060616538e-02 -1.775746994280782282e-02 -1.789353269311064545e-02 -1.771842578747752361e-02 -1.765662855496198322e-02 -1.789353269311064545e-02 -1.775746994280782282e-02 -1.750200000000000020e-02 -1.789353269311064545e-02 -1.771842578747752361e-02 -1.750200000000000020e-02 -1.759200000000000000e-02 -1.789353269311064545e-02 -1.750200000000000020e-02 -1.771842578747752361e-02 -1.744100000000000164e-02 -1.732399999999999912e-02 -1.738699999999999968e-02 -1.744100000000000164e-02 -1.738699999999999968e-02 -1.750200000000000020e-02 -1.736400000000000096e-02 -1.734467344734473560e-02 -1.736265768799102188e-02 -1.721421486094356149e-02 -1.722964838357220890e-02 -1.720000000000000001e-02 -1.732399999999999912e-02 -1.722964838357220890e-02 -1.727861322205139633e-02 -1.736265768799102188e-02 -1.734467344734473560e-02 -1.732399999999999912e-02 -1.727861322205139633e-02 -1.722964838357220890e-02 -1.721421486094356149e-02 -1.736400000000000096e-02 -1.722964838357220890e-02 -1.734467344734473560e-02 -1.732399999999999912e-02 -1.734467344734473560e-02 -1.722964838357220890e-02 -1.736477515908555272e-02 -1.736400000000000096e-02 -1.736265768799102188e-02 -1.736477515908555272e-02 -1.736265768799102188e-02 -1.744100000000000164e-02 -1.744100000000000164e-02 -1.736265768799102188e-02 -1.732399999999999912e-02 -1.724146707397239062e-02 -1.720000000000000001e-02 -1.724432552699481369e-02 -1.763258318683681367e-02 -1.744497714767483110e-02 -1.724432552699481369e-02 -1.744497714767483110e-02 -1.724146707397239062e-02 -1.724432552699481369e-02 -1.811499999999999916e-02 -1.763258318683681367e-02 -1.724432552699481369e