#
TITLE="tetrahedron_2.dat"
VARIABLES="X", "Y", "Z", "Id"
ZONE T="ZONE 1"
NODES=8
ELEMENTS=8
DATAPACKING=BLOCK
ZONETYPE=FETRIANGLE
VARLOCATION=([4-4]=CELLCENTERED)
0.0 0.0 0.0 0.0 1.0 1.0 1.0 1.0
0.0 0.0 1.0 1.0 0.0 0.0 1.0 1.0
0.0 1.0 0.0 1.0 0.0 1.0 0.0 1.0
1.0 2.0 3.0 4.0 5.0 6.0 7.0 8.0
5 8 6
5 7 8
7 3 4
7 4 8
2 5 6
2 1 5
2 4 3
2 3 1
