#
TITLE="tetrahedron_2.dat"
VARIABLES="X", "Y", "Z", "Id"
ZONE T="ZONE 1"
NODES=8
ELEMENTS=8
DATAPACKING=BLOCK
ZONETYPE=FETRIANGLE
VARLOCATION=([4-4]=CELLCENTERED)
0.0  1.0 -1.0  0.0  0.0  1.0 -1.0  0.0
1.0 -1.0 -1.0 -1.0  0.0  2.0  2.0  2.0
0.0  0.0  0.0  1.0  0.1  0.1  0.1  1.1
1.0  2.0  3.0  4.0  5.0  6.0  7.0  8.0
1 2 3
1 2 4
1 3 4
2 3 4
5 6 7
5 6 8
5 7 8
6 7 8
